<?xml version="1.0"?>
<VTKFile type="UnstructuredGrid"  version="0.1"  >
<UnstructuredGrid>
<Piece  NumberOfPoints="1366" NumberOfCells="2606">
<Points>
<DataArray  type="Float64"  NumberOfComponents="3"  format="ascii">0.5 0 0  -0.5 0 0  0 0.5 0  0 -0.5 0  -0.499358 -0.0253246 0  -0.497435 -0.0505842 0  -0.494234 -0.0757139 0  -0.489765 -0.100649 0  -0.484039 -0.125326 0  -0.47707 -0.149682 0  -0.468876 -0.173653 0  -0.459479 -0.197178 0  -0.448902 -0.220197 0  -0.437173 -0.242651 0  -0.424322 -0.264482 0  -0.410382 -0.285634 0  -0.395388 -0.306053 0  -0.379379 -0.325686 0  -0.362396 -0.344483 0  -0.344483 -0.362396 0  -0.325686 -0.379379 0  -0.306053 -0.395388 0  -0.285634 -0.410382 0  -0.264482 -0.424322 0  -0.242651 -0.437173 0  -0.220197 -0.448902 0  -0.197178 -0.459479 0  -0.173653 -0.468876 0  -0.149682 -0.47707 0  -0.125326 -0.484039 0  -0.100649 -0.489765 0  -0.0757139 -0.494234 0  -0.0505842 -0.497435 0  -0.0253246 -0.499358 0  0.0253246 -0.499358 0  0.0505842 -0.497435 0  0.0757139 -0.494234 0  0.100649 -0.489765 0  0.125326 -0.484039 0  0.149682 -0.47707 0  0.173653 -0.468876 0  0.197178 -0.459479 0  0.220197 -0.448902 0  0.242651 -0.437173 0  0.264482 -0.424322 0  0.285634 -0.410382 0  0.306053 -0.395388 0  0.325686 -0.379379 0  0.344483 -0.362396 0  0.362396 -0.344483 0  0.379379 -0.325686 0  0.395388 -0.306053 0  0.410382 -0.285634 0  0.424322 -0.264482 0  0.437173 -0.242651 0  0.448902 -0.220197 0  0.459479 -0.197178 0  0.468876 -0.173653 0  0.47707 -0.149682 0  0.484039 -0.125326 0  0.489765 -0.100649 0  0.494234 -0.0757139 0  0.497435 -0.0505842 0  0.499358 -0.0253246 0  0.499358 0.0253246 0  0.497435 0.0505842 0  0.494234 0.0757139 0  0.489765 0.100649 0  0.484039 0.125326 0  0.47707 0.149682 0  0.468876 0.173653 0  0.459479 0.197178 0  0.448902 0.220197 0  0.437173 0.242651 0  0.424322 0.264482 0  0.410382 0.285634 0  0.395388 0.306053 0  0.379379 0.325686 0  0.362396 0.344483 0  0.344483 0.362396 0  0.325686 0.379379 0  0.306053 0.395388 0  0.285634 0.410382 0  0.264482 0.424322 0  0.242651 0.437173 0  0.220197 0.448902 0  0.197178 0.459479 0  0.173653 0.468876 0  0.149682 0.47707 0  0.125326 0.484039 0  0.100649 0.489765 0  0.0757139 0.494234 0  0.0505842 0.497435 0  0.0253246 0.499358 0  -0.0253246 0.499358 0  -0.0505842 0.497435 0  -0.0757139 0.494234 0  -0.100649 0.489765 0  -0.125326 0.484039 0  -0.149682 0.47707 0  -0.173653 0.468876 0  -0.197178 0.459479 0  -0.220197 0.448902 0  -0.242651 0.437173 0  -0.264482 0.424322 0  -0.285634 0.410382 0  -0.306053 0.395388 0  -0.325686 0.379379 0  -0.344483 0.362396 0  -0.362396 0.344483 0  -0.379379 0.325686 0  -0.395388 0.306053 0  -0.410382 0.285634 0  -0.424322 0.264482 0  -0.437173 0.242651 0  -0.448902 0.220197 0  -0.459479 0.197178 0  -0.468876 0.173653 0  -0.47707 0.149682 0  -0.484039 0.125326 0  -0.489765 0.100649 0  -0.494234 0.0757139 0  -0.497435 0.0505842 0  -0.499358 0.0253246 0  -0.000210712 0.000149839 0  -0.166899 -0.185528 0  -0.00416603 0.251456 0  -0.221331 0.11467 0  0.147002 -0.199588 0  0.230722 0.09252929999999999 0  -0.0166827 -0.304894 0  -0.303017 -0.0572542 0  0.298216 -0.0859767 0  0.174175 0.266946 0  -0.175877 0.280649 0  0.149914 -0.0474738 0  -0.151989 -0.0306767 0  -0.0190878 -0.152517 0  0.08612359999999999 0.127956 0  -0.07827729999999999 0.123621 0  0.122756 -0.338638 0  -0.15551 -0.325764 0  -0.353237 0.0778697 0  0.360809 0.040034 0  -0.303181 -0.194105 0  0.282619 -0.224601 0  0.0765368 0.358605 0  0.300352 0.210686 0  -0.0707054 0.362508 0  -0.290983 0.222852 0  -0.257838 -0.294956 0  0.227165 -0.320588 0  0.0349654 -0.395411 0  -0.0761024 -0.39058 0  0.0818243 -0.126716 0  0.375703 0.139622 0  0.0516167 -0.227304 0  -0.39865 -0.0140204 0  -0.379457 -0.123472 0  0.365014 -0.162699 0  0.395139 -0.0555364 0  -0.234693 0.0210452 0  0.236709 -0.00228657 0  -0.07742880000000001 -0.227126 0  -0.218516 -0.101766 0  0.206777 -0.125193 0  0.175508 0.36252 0  0.266277 0.302041 0  -0.09656629999999999 0.217431 0  0.144315 0.0525764 0  0.08915960000000001 0.220924 0  0.17032 0.17118 0  -0.06661259999999999 -0.06862509999999999 0  -0.367855 0.16883 0  -0.148055 0.0594469 0  -0.26139 0.313604 0  -0.163275 0.372648 0  0.000161316 0.410522 0  0.000812312 0.162516 0  -0.181247 0.192293 0  0.0142806 0.07991139999999999 0  -0.0821445 0.00944626 0  -0.13674 -0.110526 0  0.07769479999999999 0.00343218 0  0.000650059 0.330816 0  0.0152497 -0.07884670000000001 0  -0.300558 0.130785 0  0.309049 0.09571209999999999 0  -0.223781 -0.356839 0  0.186054 -0.377975 0  0.3023 -0.29745 0  -0.331086 -0.264776 0  -0.190169 -0.258747 0  0.162856 -0.276964 0  -0.09684950000000001 0.295837 0  -0.152039 -0.398527 0  0.107297 -0.414078 0  -0.425502 0.0542383 0  0.415709 0.0840506 0  0.355877 -0.23496 0  0.0574995 -0.302328 0  -0.378758 -0.19905 0  0.42639 0.00982953 0  0.371041 0.212767 0  -0.312314 0.0149781 0  0.312771 -0.0140761 0  0.107758 0.295743 0  0.226208 0.217079 0  -0.0880514 -0.298707 0  0.219449 -0.196915 0  -0.289333 -0.120492 0  0.331884 0.27448 0  0.123673 0.412075 0  -0.235832 -0.173732 0  0.276995 -0.151859 0  -0.14445 0.133775 0  -0.0856254 -0.16241 0  -0.361464 0.236332 0  -0.110988 0.416783 0  0.256875 0.153908 0  -0.412968 0.122599 0  -0.0235363 -0.434646 0  0.417375 -0.119684 0  -0.427379 -0.0755612 0  -0.227246 0.24325 0  -0.245282 0.176353 0  0.238501 0.361478 0  -0.322308 0.293043 0  -0.01389 -0.217409 0  -0.276581 0.07173019999999999 0  0.144417 -0.135101 0  -0.229435 0.370507 0  -0.0472696 0.0640918 0  0.0779711 0.0649634 0  0.0448437 0.286523 0  0.06296259999999999 0.432205 0  0.283733 0.0412886 0  -0.214086 -0.0392938 0  0.207909 -0.0617295 0  -0.0540619 0.436147 0  0.102941 -0.260078 0  0.08744399999999999 -0.0603894 0  0.143571 0.111938 0  0.232774 -0.252692 0  -0.258251 -0.229824 0  -0.0201421 -0.363378 0  0.0894654 -0.18268 0  -0.361506 -0.0647296 0  0.353516 -0.102389 0  -0.132209 -0.260801 0  -0.0559615 0.179972 0  0.204634 0.0406833 0  0.20817 0.315649 0  0.313887 0.155097 0  -0.0438845 0.290426 0  -0.283092 -0.344831 0  0.0393134 -0.159788 0  0.245435 -0.372517 0  0.144702 0.217837 0  -0.181386 0.0191676 0  0.0329126 0.209689 0  0.111752 0.175894 0  0.0651504 -0.353576 0  0.0602836 -0.440976 0  -0.107328 -0.433415 0  -0.208116 0.06408850000000001 0  0.427815 0.136575 0  -0.207887 0.324381 0  0.173109 -0.32897 0  -0.207055 -0.306513 0  -0.12172 0.342827 0  -0.0251983 0.114168 0  0.399615 -0.201975 0  0.186505 -0.00662577 0  -0.447095 0.00654469 0  0.445496 -0.0406443 0  -0.417987 -0.159339 0  -0.361453 0.021974 0  0.362442 -0.0158737 0  -0.107993 -0.347652 0  -0.10531 0.167929 0  -0.149717 0.235796 0  0.0420181 -0.0327199 0  -0.334451 -0.148229 0  0.126877 0.341069 0  0.263089 0.25346 0  -0.319446 0.180044 0  0.318398 -0.181787 0  0.286415 -0.349992 0  -0.178041 -0.134266 0  -0.175888 -0.0780855 0  -0.31896 -0.316506 0  0.358234 0.0894075 0  0.0115461 -0.264216 0  0.313698 0.320835 0  0.171647 0.414525 0  -0.0960713 0.0785652 0  -0.26243 -0.0251825 0  0.260085 -0.053326 0  -0.0563731 -0.120641 0  0.132677 -0.000256632 0  0.16984 -0.09382359999999999 0  -0.040578 -0.263463 0  -0.100614 -0.0352048 0  -0.046321 -0.0222577 0  -0.119112 -0.200835 0  -0.198371 -0.404159 0  0.15536 -0.422521 0  0.0349563 0.0356029 0  0.350344 -0.285868 0  -0.0566422 0.246366 0  -0.376031 -0.247774 0  0.213938 0.134591 0  0.411378 0.184172 0  -0.399625 0.207905 0  -0.131914 0.013646 0  0.187709 -0.230059 0  0.0221751 -0.337945 0  -0.347979 0.126309 0  0.253897 -0.107503 0  0.338024 -0.0574339 0  -0.343305 -0.0201044 0  -0.258601 -0.07383439999999999 0  0.0528375 0.166006 0  -0.161529 0.419923 0  -0.332233 -0.0981001 0  -0.208076 -0.212335 0  -0.30387 0.335009 0  0.0280203 0.371293 0  -0.0243178 0.372814 0  0.183698 0.0852644 0  -0.0578867 -0.340834 0  0.319644 -0.132661 0  0.181583 -0.166584 0  -0.269197 0.268025 0  0.120603 -0.0944275 0  0.222217 0.272531 0  0.159681 0.310017 0  -0.0109394 0.455556 0  -0.424145 0.166845 0  -0.0152164 0.203536 0  0.450923 0.0486703 0  -0.175822 0.0975555 0  -0.0546991 -0.19151 0  0.0299542 0.124176 0  0.0182267 -0.453225 0  0.373667 0.258149 0  -0.066617 -0.447242 0  -0.190315 0.149427 0  -0.453486 -0.0369831 0  0.42394 -0.165617 0  -0.438517 -0.120894 0  0.447291 -0.0841865 0  -0.134008 -0.155337 0  -0.163832 0.324171 0  -0.179443 -0.362759 0  0.140568 -0.379518 0  0.284399 0.357037 0  0.216492 0.401942 0  0.316145 -0.254872 0  -0.206841 0.405659 0  -0.33987 -0.221991 0  0.0150485 -0.122962 0  -0.008248119999999999 0.0442982 0  -0.449006 0.08957850000000001 0  -0.271827 0.368636 0  -0.314008 0.0928679 0  -0.159053 -0.226252 0  -0.128643 -0.0677111 0  0.274498 -0.265226 0  0.127988 -0.296598 0  0.269786 0.115036 0  0.0435764 0.329799 0  -0.0274724 -0.0892569 0  -0.227668 0.281854 0  0.320507 0.0567699 0  -0.289676 -0.260141 0  0.0570877 -0.0879649 0  -0.00728089 -0.042439 0  0.404025 0.0418161 0  0.114216 0.080557 0  -0.139824 0.192231 0  -0.0952469 -0.101402 0  -0.395275 0.0866557 0  0.121142 0.252068 0  0.185989 0.22449 0  -0.36163 0.279137 0  0.336029 0.231059 0  0.101853 0.449125 0  -0.255517 0.135912 0  0.232161 -0.157409 0  -0.246343 -0.133106 0  0.106088 0.035777 0  -0.0398409 0.0169139 0  0.0303356 0.457852 0  0.352511 0.177461 0  -0.278021 -0.161692 0  0.259134 -0.191491 0  0.0822396 0.397025 0  0.141836 -0.241407 0  -0.232453 -0.260514 0  0.00424121 0.29003 0  -0.0414644 0.333323 0  0.0188712 -0.197911 0  0.049911 0.246379 0  0.202107 -0.285279 0  0.218608 -0.40545 0  -0.259476 -0.380478 0  0.241767 0.0502322 0  -0.08987299999999999 0.451448 0  -0.111773 0.255352 0  -0.189128 0.235232 0  0.212429 0.17828 0  -0.323303 0.252028 0  0.258804 0.195742 0  -0.163928 -0.284909 0  -0.0750117 0.401577 0  0.106716 -0.218055 0  0.058378 0.094626 0  0.446119 0.104332 0  -0.142219 -0.43943 0  -0.359062 -0.292297 0  0.098624 -0.452615 0  -0.272511 0.0361018 0  0.32774 -0.327301 0  -0.108769 0.375331 0  0.07276779999999999 -0.394618 0  -0.129493 0.0984413 0  0.111696 -0.0321287 0  0.337964 0.123088 0 
[...]
<PointData  Scalars="u"> 
<DataArray  type="Float64"  Name="u"  format="ascii">7.0527841874544539e-01  -4.7942553860420301e-01  0.0000000000000000e+00  0.0000000000000000e+00  -4.7886203183720172e-01  -4.7717296467787856e-01  -4.7435745594130502e-01  -4.7041852695613584e-01  -4.6535797167684956e-01  -4.5917830197367643e-01  -4.5188387675134467e-01  -4.4348120338257135e-01  -4.3397658119344107e-01  -4.2338003348309738e-01  -4.1170300276117566e-01  -3.9895963904688492e-01  -3.8516628250095075e-01  -3.7034369719028820e-01  -3.5451562874878656e-01  -3.3771009606234315e-01  -3.1995879907161756e-01  -3.0129740938082833e-01  -2.8176582023585839e-01  -2.6140931511815413e-01  -2.4027680511946189e-01  -2.1842187064250723e-01  -1.9590279551395498e-01  -1.7278155339514234e-01  -1.4912369572022416e-01  -1.2499818319404925e-01  -1.0047915327979458e-01  -7.5641581215440776e-02  -5.0562630610926265e-02  -2.5321893159869650e-02  -8.3110293155751555e-05  1.6991721422059344e-02  4.0884262976964285e-02  6.8456567253619469e-02  9.8617375477574543e-02  1.3015080977717960e-01  1.6273252127581583e-01  1.9569465369076641e-01  2.2865723864529378e-01  2.6154035938733322e-01  2.9405447511249472e-01  3.2607545411542127e-01  3.5740543359330418e-01  3.8811913223507116e-01  4.1802791427044955e-01  4.4716768632761095e-01  4.7536254952265017e-01  5.0263520078655577e-01  5.2875011528666283e-01  5.5375731665246397e-01  5.7748258518432072e-01  5.9967960443453638e-01  6.2020787949132472e-01  6.3901948682690213e-01  6.5577100016657741e-01  6.7031738697268828e-01  6.8255488256396257e-01  6.9229022394123041e-01  6.9932311735987329e-01  7.0368999669345345e-01  7.0400506132855722e-01  7.0000841398578773e-01  6.9325512629845132e-01  6.8392241577446333e-01  6.7204352076090434e-01  6.5789035755389991e-01  6.4150113058030855e-01  6.2327975686157799e-01  6.0319130073307348e-01  5.8144863485797726e-01  5.5832273857924752e-01  5.3382467601440364e-01  5.0809994190700358e-01  4.8122608209693712e-01  4.5312427313905113e-01  4.2402214166779834e-01  3.9391189766811513e-01  3.6282066656572287e-01  3.3096711431868908e-01  2.9846750853931892e-01  2.6537281979770388e-01  2.3189380213428443e-01  1.9840877865403111e-01  1.6493606225374788e-01  1.3186236429703158e-01  9.9808652455713534e-02  6.9099169727159154e-02  4.1058906290703148e-02  1.6867176023915336e-02  -2.7534591288785133e-04  -2.5321893159869650e-02  -5.0562630610926265e-02  -7.5641581215440776e-02  -1.0047915327979458e-01  -1.2499818319404925e-01  -1.4912369572022416e-01  -1.7278155339514234e-01  -1.9590279551395498e-01  -2.1842187064250723e-01  -2.4027680511946189e-01  -2.6140931511815413e-01  -2.8176582023585839e-01  -3.0129740938082833e-01  -3.1995879907161756e-01  -3.3771009606234315e-01  -3.5451562874878656e-01  -3.7034369719028820e-01  -3.8516628250095075e-01  -3.9895963904688492e-01  -4.1170300276117566e-01  -4.2338003348309738e-01  -4.3397658119344107e-01  -4.4348120338257135e-01  -4.5188387675134467e-01  -4.5917830197367643e-01  -4.6535797167684956e-01  -4.7041852695613584e-01  -4.7435745594130502e-01  -4.7717296467787856e-01  -4.7886203183720172e-01  -2.1071199844074711e-04  -1.6612524215805172e-01  -4.1660179492090813e-03  -2.1952834889889308e-01  1.8712098214590886e-01  3.0709548673839160e-01  -1.6681926176835272e-02  -2.9840110752237814e-01  3.9993695053492456e-01  2.1592423680207251e-01  -1.7497167570170705e-01  1.9912564398282287e-01  -1.5140450125331681e-01  -1.9086640933201705e-02  1.1381984812551676e-01  -7.8197385937873509e-02  1.3913286462257873e-01  -1.5488396507286337e-01  -3.4593675514767380e-01  4.9263891637810991e-01  -2.9855763176031391e-01  3.6292911865177063e-01  8.3586652531322414e-02  3.9238596112988133e-01  -7.0646502353354193e-02  -2.8689404052653089e-01  -2.5499061755872537e-01  2.7203800059812461e-01  3.3899188199975387e-02  -7.6028962472669936e-02  1.0783755766715769e-01  5.0785789294061123e-01  6.5685809545439303e-02  -3.8817455548702862e-01  -3.7041614985788157e-01  4.8727880817157926e-01  5.4187892009153038e-01  -2.3254441264170836e-01  3.1723649741840410e-01  -7.7351456085279102e-02  -2.1678115149892119e-01  2.7166421470090157e-01  2.0021809360712745e-01  3.3108296634345485e-01  -9.6416289026017149e-02  1.9192177623202750e-01  1.1307626306609034e-01  2.2110308261770484e-01  -6.6563348263040042e-02  -3.5961475944168819e-01  -1.4751469127556718e-01  -2.5842358517657577e-01  -1.6255051579477098e-01  -1.2979119155708502e-03  4.8200900812125904e-03  -1.8025628699648880e-01  2.1370613229503423e-02  -8.2052149830896204e-02  -1.3631427471086763e-01  1.0405642642185380e-01  2.2805770129758207e-03  2.2759243695363609e-02  -2.9605323838743247e-01  4.1581634618956126e-01  -2.2191792264586058e-01  2.0685096673916176e-01  3.7621570710085644e-01  -3.2507023909048088e-01  -1.8902485099444596e-01  1.9813125920626795e-01  -9.6698165754494789e-02  -1.5145392465853247e-01  1.0466563226951157e-01  -4.1277807121491700e-01  5.7182597432000415e-01  4.6250608627198575e-01  6.7813025670367441e-02  -3.6976678214788450e-01  5.9069949845098690e-01  4.9156899924575986e-01  -3.0726151762499299e-01  4.2354815183413352e-01  1.2899475544238584e-01  2.9063458348590715e-01  -8.7937666294368097e-02  2.8189266825727838e-01  -2.8531301287876287e-01  4.2602018509266271e-01  1.2492763912356129e-01  -2.3365203676130872e-01  3.6474626509658081e-01  -1.4394817963525533e-01  -8.5520808261419320e-02  -3.5364400822160386e-01  -1.1076027572247865e-01  3.3877811566092608e-01  -4.0132958291188275e-01  -2.3534127042192182e-02  5.6950312268851977e-01  -4.1448697405145818e-01  -2.2529518512391916e-01  -2.4282989386606380e-01  2.8131128468127148e-01  -3.1675655618973381e-01  -1.3889553366497019e-02  -2.7306819118568099e-01  1.8847740206965552e-01  -2.2742736566321761e-01  -4.7251998648674291e-02  1.0429881192589582e-01  5.4602435011999594e-02  5.4264721192613892e-02  3.8231805198270874e-01  -2.1245438288601801e-01  2.7657740713489309e-01  -5.4035569494395551e-02  1.2603692367812394e-01  1.1651044718121356e-01  1.8929695813133984e-01  2.9179914074147123e-01  -2.5538994347739408e-01  -2.0140738071891633e-02  1.1512982759394952e-01  -3.5368329387351849e-01  4.7751540182449737e-01  -1.3182418477503199e-01  -5.5932295566509131e-02  2.7316769066611657e-01  2.5168604032348235e-01  4.1784667602389136e-01  -4.3870415533734379e-02  -2.7932590620135805e-01  5.2871129956349475e-02  2.8354806464325050e-01  1.8381981129954156e-01  -1.8039300838992814e-01  4.3363860848685334e-02  1.4468244428924762e-01  7.0929367601591090e-02  4.9133773194391078e-02  -1.0712206141824464e-01  -2.0661692073329138e-01  5.8504739321849131e-01  -2.0639285669861082e-01  2.0193657583609562e-01  -2.0557869897741424e-01  -1.2141966022235891e-01  -2.5195633456405665e-02  5.3103346847620447e-01  2.4879710539688032e-01  -4.3234790361680858e-01  6.1875712657445059e-01  -4.0592158010721346e-01  -3.5363371901920287e-01  4.9519274667960927e-01  -1.0778321119170116e-01  -1.0511545648241229e-01  -1.4915830427810317e-01  5.7157263128762306e-02  -3.2825063909428287e-01  1.4517308021153683e-01  3.3520471577525823e-01  -3.1404063594864606e-01  4.1855641709054525e-01  3.4298244529176314e-01  -1.7710188133532465e-01  -1.7498250599926238e-01  -3.1357918584169153e-01  4.8670517535387003e-01  1.6202756955504681e-02  3.9169421389021813e-01  1.8144428245050181e-01  -9.5923583390963629e-02  -2.5942811821081407e-01  3.4838671729254478e-01  -5.6343246483518197e-02  1.7675741639265341e-01  2.2413514971046961e-01  -4.0566865136228349e-02  -1.0044433034752355e-01  -4.6304437116872620e-02  -1.1883054613697808e-01  -1.9707253944737743e-01  1.5707617147812661e-01  4.7926134053514639e-02  4.4444200809224205e-01  -5.6611916963460678e-02  -3.6723168760759034e-01  2.8190638555113978e-01  5.5427589044063663e-01  -3.8907291706301783e-01  -1.3153175347497553e-01  2.3624513622143015e-01  2.5104722925185646e-02  -3.4099863622245941e-01  3.3687338474288986e-01  4.5824967796845256e-01  -3.3660106929578981e-01  -2.5572832117464528e-01  7.0026458634301209e-02  -1.6082749031209556e-01  -3.2615473130660966e-01  -2.0657778369132010e-01  -2.9921513666008648e-01  2.9384964967524328e-02  -2.4315403327153824e-02  2.4371893557002169e-01  -5.7854376947898564e-02  4.2623224698315448e-01  2.3495369677402178e-01  -2.6595744274680894e-01  1.5914801102691509e-01  2.7761588606270954e-01  1.9095305511401811e-01  -1.0939181814111302e-02  -4.1154169301326238e-01  -1.5215812808891754e-02  6.2739559167230585e-01  -1.7491752389638285e-01  -5.4671827539519963e-02  4.2228169302036482e-02  1.1216578571242397e-02  4.8757857300526464e-01  -6.6567738504080182e-02  -1.8916821693568511e-01  -4.3810184346196002e-01  5.7290105201614627e-01  -4.2459725045935487e-01  6.1845155556266551e-01  -1.3360727082527715e-01  -1.6310008257492523e-01  -1.7848154474540495e-01  1.5158402801610552e-01  3.4359808651090867e-01  2.4191287338668688e-01  4.0355733525614601e-01  -2.0536926518605336e-01  -3.3336453121667498e-01  2.3044926863740746e-02  -8.2480264783447929e-03  -4.3407027495809547e-01  -2.6849179997174055e-01  -3.0887312893480784e-01  -1.5838323107763222e-01  -1.2828847418557116e-01  3.4512026558680031e-01  1.5215623405949280e-01  3.5958100121152653e-01  5.0026583487497292e-02  -2.7468944410350884e-02  -2.2570631566389246e-01  4.3394665049241787e-01  -2.8564173908554114e-01  7.6762954150585302e-02  -7.2808256718580018e-03  5.5642560093759375e-01  1.5158985762502672e-01  -1.3936883446855905e-01  -9.5102952442253391e-02  -3.8506199830968607e-01  1.5053372386563815e-01  2.3660258543762649e-01  -3.5379927644356146e-01  4.3918876374965843e-01  8.8459464809586108e-02  -2.5274565682475164e-01  3.0308783229265285e-01  -2.4385900008114619e-01  1.4145381588845887e-01  -3.9830360944213862e-02  1.8505019386988706e-02  4.7006525685708317e-01  -2.7445317992804208e-01  3.3575421010092016e-01  8.2737732618817672e-02  1.7631389464569763e-01  -2.3036523891302402e-01  7.1443387373495097e-03  -4.1452519421950912e-02  2.6271893512453105e-02  6.2877290987214493e-02  2.4655589464455438e-01  2.4017640809897164e-01  -2.5657412827271225e-01  3.2375094070232990e-01  -8.9752062476432984e-02  -1.1154041152996269e-01  -1.8800251558936229e-01  2.7638329351605928e-01  -3.1770016357209480e-01  3.3716315729746654e-01  -1.6319479633801562e-01  -7.4941374376785427e-02  1.3445923713754263e-01  7.8626819355657823e-02  6.1613688795778987e-01  -1.4174005858431879e-01  -3.5139620721003778e-01  8.2791902858641936e-02  -2.6915062197996142e-01  4.0398739510048365e-01  -1.0855465801274523e-01  7.2461360420092560e-02  -1.2913140409995580e-01  1.4873362146400701e-01  4.5498143832015298e-01  -1.2291040979631043e-01  3.2405437984365532e-01  7.9101851110218308e-02  -2.4022438673087559e-01  2.3831142116377943e-01  -2.1700470024492821e-01  -3.9219172728326834e-01  3.7076806769098830e-01  -2.5568191694304004e-01  5.5548144859490223e-01  -4.0636295026281283e-01  9.6537381738877340e-02  -3.1538278664833391e-01  -1.3739203803846578e-01  6.4509436373737328e-01  5.1970106534793747e-01  -4.4042769029836698e-01  1.6050348702922140e-01  -7.9476193180486029e-02  3.7303867320897138e-01  1.4663720928404897e-01  -1.1326143551349459e-01  -3.6301072028839737e-01  -2.7945745048010273e-01  -3.4222606837403091e-01  4.6650983538653801e-01  -2.0250573840401243e-01  1.8039120946195930e-01  -2.1772682797739822e-03  1.0572419888787536e-01  4.4250623581138737e-01  -9.1848764904372854e-02  1.4329740906854066e-01  5.4381428524988418e-01  3.6222185434337262e-01  4.3627918386757286e-01  1.0278945179111776e-01  2.7582699275181203e-02  3.9649382316015608e-01  -2.9530142685855437e-01  5.3559024187482973e-01  -1.0559477398535620e-01  -3.3653891983802475e-01  -2.3421691537594672e-01  1.0975781844105331e-01  2.2811410551226891e-01  5.1607507284792542e-01  5.3502519861117970e-01  -3.8910792264662114e-01  -3.8305842043790111e-01  -4.0188973568428842e-02  2.3069768664045931e-01  3.8484295699228691e-02  -3.7324096945766400e-01  4.2077718074672016e-01  -5.2913577187966562e-02  -1.4196674286178276e-01  -3.0132410810873889e-01  9.7392398874908748e-02  -1.9505938711830725e-01  -3.0305159358573114e-02  -2.8957329258699738e-01  2.8900934907766523e-01  -2.0784761168825525e-01  -2.8262536098134162e-02  7.4476553019394057e-02  -3.8284872519556351e-01  3.2027072782816973e-01  1.7191378234439278e-01  3.8701063362406452e-01  -1.1185443408378870e-01  -1.3453283850378978e-01  2.4122447709050071e-01  -2.6807660051795706e-01  -1.0607605567235096e-01  6.4890331617615218e-02  -2.2427790319383276e-01  -3.1873200862307181e-02  5.2933076617599062e-01  -2.7205409730355695e-01  -5.3536592824835874e-02  2.9494859739683416e-01  -3.7327715081670354e-01  -6.5991308819747838e-02  -4.3776201839100753e-01  -1.5643285246152649e-01  -2.3091987087543209e-01  -4.4772727262617751e-01  1.9722188593081091e-01  -2.8489127414138121e-01  6.2273981420908919e-01  3.0090927964303632e-01  -3.2731249888589403e-01  3.8240969318847662e-01  -1.4401745024841867e-01  -2.3626089966056388e-01  1.4849137756515884e-01  -3.0935815140181111e-01  -2.8349914542785742e-01  1.2295714455321219e-01  -7.1420043379263984e-02  -1.7869112060935835e-01  3.2289051584315065e-01  -5.4528042342863590e-02  -1.5075328924460870e-02  2.9968156576962446e-01  3.9006889795382871e-01  -9.2158395421964179e-03  -2.4516414398360123e-01  -2.3697114161142999e-01  2.8262384254803657e-01  2.4084842565045261e-01  -2.1489176069915314e-01  9.1426303244198162e-02  -1.7795609362218906e-01  -1.1394200106370868e-01  9.4905806587557720e-02  4.8761468173146200e-01  -3.9792687983289571e-01  -2.0152635623831325e-01  1.8327929837713283e-01  1.1354802458671309e-01  -8.5325923229841047e-02  -6.8099354475180479e-02  -2.2552608565525986e-01  -4.4727373424027363e-02  6.3217838409108620e-02  -1.8309327567476744e-01  9.7902025073056842e-02  2.2817299468533622e-01  4.3325361746927243e-01  1.3506762689873237e-02  2.2812393733605371e-01  -4.1143283464524949e-02  3.9770389063916894e-01  5.7434153032735122e-02  3.4587544077981855e-02  2.9748444540561436e-01  -1.8436721338243617e-01  -3.1697389741313385e-02  5.3256472991691473e-01  -3.3289309056030914e-01  -9.7414467956623729e-02  -2.6219294988326505e-02  -3.6582677393322882e-01  4.0663760457872129e-02  1.5846423728179040e-01  -1.5688156405113587e-02  5.0256948738677443e-01  5.9677274194806584e-01  2.0270307708358831e-01  1.5614118386890039e-01  2.8221066750258789e-01  -7.5413534448366654e-02  1.4842149325022855e-01  2.3926063311662429e-02  -2.3744229931661376e-01  3.3920698716601444e-01  4.3723569013783153e-01  1.0424243964307858e-01  3.2302835715052991e-01  -2.0552487343421849e-01  -3.1619972811625707e-01  -3.5727341392557699e-01  1.1672323297871259e-01  2.7841718834288712e-02  -3.0285126268472978e-01  5.1633410352030273e-01  -7.8007667241452652e-02  2.7708638507904043e-01  1.0974547923074253e-01  -3.2698742837072658e-01  2.3412432547514392e-01  1.6910492421164361e-01  -1.6677603500547772e-01  2.1365189411244029e-01  -3.6116694069716460e-01  -4.1622169467955666e-01  -2.6065346150616531e-01  -4.9952402745754430e-02  5.2893949951089470e-01  5.8626522872849418e-01  -3.9848092716327660e-01  -7.5021149172197238e-02  -8.4370182236476812e-02  1.8839031646605955e-01  1.1706362689787976e-01  -2.7156426056567862e-01  -4.5398346252158300e-01  -1.4795480829501131e-01  2.6861771948910229e-01  7.6257832479367432e-02  2.7163213562868099e-01  6.5946133629708725e-01  5.7591294383439084e-01  6.4755281420925148e-01  2.8013832333531674e-01  6.5139351337913975e-01  -4.3220542853442567e-01  -2.7861432408192843e-01  2.0832818200669828e-01  -1.0783987895857405e-01  -4.1536862285199888e-01  -3.3492135353425517e-02  2.1859294397878445e-01  -9.2220779266687702e-02  4.7552915447799704e-01  2.6347329848987071e-02  -2.0324210044489563e-01  -1.5864488060781826e-01  1.0159030564694195e-01  4.7686715009136682e-01  2.9259213850147670e-01  3.5632977092333401e-01  1.6822052589142278e-01  2.4129555756863486e-01  3.8451546090664057e-01  -3.0137178382098362e-01  3.7498305383159575e-01  2.1289076317298383e-01  3.4663230959741359e-02  3.6626928067287612e-01  -8.7332005482509439e-02  5.5891130413305797e-02  3.4972875322376168e-01  -2.8483747002606280e-02  2.1130794428566199e-01  -5.3634152456454101e-02  6.0732974407353278e-02  2.3782622941419213e-01  -1.5454608304892073e-01  9.2307546067469173e-03  1.5558289473635936e-01  -3.7312778307942368e-01  -3.4239049622066753e-01  6.2287540590633657e-03  -1.4849254234882000e-02  4.9840820581652602e-02  -2.0152145882033362e-01  2.7348992484706958e-01  -3.3248381259627441e-01  4.5978270230364010e-01  -8.0066804978486963e-02  -2.7974740547121579e-01  1.6864652505182568e-03  -1.4016640993328246e-02  -2.9175676634589170e-01  1.7974056440326208e-02  4.3899569110760782e-02  4.4068077317563953e-01  -3.8707021732490865e-01  -2.2860938496900796e-01  7.6115662778321491e-02  -1.8007126702991160e-02  4.4575519202956349e-01  -1.3544937176884689e-01  5.0160825744103454e-01  -3.6147557879547193e-01  -2.3317265448853974e-01  2.6799214813972094e-01  -1.8957767141485030e-01  3.5209727520343009e-01  1.7173713911510013e-02  -2.7036776263884810e-01  -2.0303549980552296e-01  -1.6083045125896767e-01  -3.1118624667150208e-01  3.8203555730752992e-01  -1.0195254744928912e-01  -8.5473581820732780e-02  -2.7135540896628385e-01  -4.8538509404492522e-03  3.1493299368188121e-01  -3.4300865104805556e-01  -1.5125425177761515e-01  4.0130459378928884e-01  5.3267687043626866e-01  -1.9277754063938760e-01  2.5218241203046110e-01  -2.2883328811380177e-01  4.6864031943015910e-01  -6.6911470414493773e-02  -1.9790873939003695e-01  1.9341543160534250e-01  7.8910881197430699e-02  9.1006420784523284e-02  -2.5787000661724058e-01  -1.2795028445243434e-01  -2.9557848163732475e-01  -1.8786206356543078e-01  1.6484622218918113e-01  6.2997925520773101e-01  -2.4416641781438328e-01  1.9407560941332154e-03  -4.5148418102471538e-01  -1.7772877599927223e-01  7.3554023659089460e-02  1.7894195458889142e-01  -1.2237150885341626e-01  -5.0669493456734951e-02  5.4379168882561313e-01  -4.2683043868162168e-01  -3.5108255150506318e-01  2.5729985759030549e-01  3.1731738003598503e-01  5.4505205684132585e-02  -4.8754664196938566e-02  -4.1311778269149957e-01  6.6386217151541127e-01  5.4705992881067633e-01  5.7412935885267014e-01  -4.0470572392590526e-01  -3.4457028554347979e-01  1.9260512755826456e-01  -2.7363883917545410e-02  4.0332618003066734e-01  3.0851224064351129e-01  9.6619205165086909e-03  5.5732885154879908e-01  -1.1871437432169278e-01  2.6933907521442316e-02  -1.1196672424949544e-01  -1.2736907909528342e-01  -2.8865716198215496e-01  3.1610807222582682e-01  2.0835324748217046e-02  2.9059508104802085e-02  1.9985544952445466e-01  -4.5661797012333910e-01  3.3130534814430601e-01  -1.2744346789135225e-01  -1.4828215723860363e-01  3.9866751234724435e-01  -4.1432497765246068e-01  -1.8524483144038173e-01  -1.7340401367405500e-01  1.1113591441673422e-01  5.9527362008209905e-01  -1.9176872167751433e-01  4.6165464509767939e-01  2.4392221791535523e-01  -1.2672335429144019e-01  -2.5154281866717443e-01  -2.6182144364763010e-01  -6.9435683391768172e-02  1.0609863385444245e-01  1.7664729907529780e-01  -1.1182760347875403e-01  -4.3374232624825004e-01  -1.6710337608313786e-01  -1.7574451188327697e-01  -3.8275541832708809e-01  1.3793948135589959e-01  3.9733345572708317e-01  1.5551246837845945e-01  -3.8078952565493496e-01  2.0819605345753506e-01  4.2166422112082053e-01  -8.1185550844714682e-02  4.8480965175736968e-01  -3.6615714332532290e-01  1.0209541924920593e-01  -2.6731061479084811e-01  3.2192448197187001e-01  -3.5820256676174844e-01  4.4338743356520849e-01  -4.1009935816926857e-01  -2.4515251018693682e-01  8.9231458101956249e-02  4.4719428834976531e-02  4.9039644471241045e-01  -2.0166739971366524e-01  1.7395442213431178e-01  1.2469723210537557e-03  -3.1592838909196230e-01  3.9013776869829368e-02  2.3060052445659795e-02  1.5010101391927768e-02  -9.2512227995664276e-02  4.0879863263548044e-01  -1.4737918869018263e-01  -3.4309037165509609e-01  -2.6901954050904654e-02  -1.